LAMMPS data file
# Generated by Playmol on 14-Jul-2018 at 16:31:48

2 atom types
1 bond types
1 angle types

1536 atoms
1024 bonds
512 angles

-12.5000000 12.5000000 xlo xhi
-12.5000000 12.5000000 ylo yhi
-12.5000000 12.5000000 zlo zhi

Masses

1 1.00790000 # HW
2 15.9994001 # OW

# Elements: H O

Pair Coeffs # lj/cut/coul/long

1 0.0000 0.0000 # HW
2 0.1554252 3.165492 # OW

Bond Coeffs # harmonic

1 1059.162 1.000 # HW OW

Angle Coeffs # harmonic

1 75.90 112.0 # HW OW HW

Atoms

1 1 1 0.42 0.458126009 -4.86528015 10.7800493 # H1
2 1 2 -0.84 4.18820009E-02 -3.96640992 10.6430292 # O
3 1 1 0.42 0.706812024 -3.29004502 10.3261738 # H2
4 2 1 0.42 -8.15994740 4.23218393 -8.80745316 # H1
5 2 2 -0.84 -9.14913082 4.10491514 -8.73452759 # O
6 2 1 0.42 -9.45363331 3.26780105 -9.18897057 # H2
7 3 1 0.42 -3.71235609 -10.2220716 -9.07719135 # H1
8 3 2 -0.84 -3.87859201 -11.0000057 -8.47123432 # O
9 3 1 0.42 -3.54571009 -10.8301821 -7.54368401 # H2
10 4 1 0.42 -2.65682292 5.77992296 0.174624994 # H1
11 4 2 -0.84 -3.48483896 5.22813702 0.274235994 # O
12 4 1 0.42 -4.27047682 5.77901411 0.555853009 # H2
13 5 1 0.42 10.4900331 5.55339479 -0.589709997 # H1
14 5 2 -0.84 10.9999857 6.40694380 -0.482923001 # O
15 5 1 0.42 10.4008102 7.20712090 -0.509451985 # H2
16 6 1 0.42 2.59197593 -2.59544706 -8.25435829 # H1
17 6 2 -0.84 2.61628699 -3.52940989 -8.61089993 # O
18 6 1 0.42 3.24585795 -4.11084604 -8.09556198 # H2
19 7 1 0.42 2.19423699 0.918057978 0.574218988 # H1
20 7 2 -0.84 1.92230403 0.517677009 1.44928896 # O
21 7 1 0.42 0.928999007 0.508343995 1.56443095 # H2
22 8 1 0.42 -1.73699999 -3.53067899 6.71735620 # H1
23 8 2 -0.84 -0.973110974 -3.23399496 6.14424706 # O
24 8 1 0.42 -1.23082495 -2.48360395 5.53556204 # H2
25 9 1 0.42 -8.10040760 -8.17197514 -0.444391996 # H1
26 9 2 -0.84 -8.35495377 -7.23191881 -0.671329021 # O
27 9 1 0.42 -8.60067940 -6.70374489 0.141475007 # H2
28 10 1 0.42 -4.35315084 -8.63171387 2.06103396 # H1
29 10 2 -0.84 -4.94517279 -8.60145473 1.25568104 # O
30 10 1 0.42 -5.05451822 -7.67103577 0.905874014 # H2
31 11 1 0.42 -9.42801666 2.51242995 -0.220119998 # H1
32 11 2 -0.84 -8.89677334 1.81093800 0.254945993 # O
33 11 1 0.42 -8.00477505 2.15276003 0.550745010 # H2
34 12 1 0.42 -0.527903974 5.19210720 3.74089289 # H1
35 12 2 -0.84 -1.42613602 5.11654377 3.30791497 # O
36 12 1 0.42 -1.75753605 4.17314291 3.29487395 # H2
37 13 1 0.42 5.49031782 -3.52263594 -10.6275005 # H1
38 13 2 -0.84 6.40123987 -3.34765291 -11.0011358 # O
39 13 1 0.42 6.96886015 -2.81724310 -10.3714752 # H2
40 14 1 0.42 3.70483208 -10.9865112 -8.74174213 # H1
41 14 2 -0.84 4.30654716 -10.9989500 -9.54035568 # O
42 14 1 0.42 4.77008295 -10.1229811 -9.67381859 # H2
43 15 1 0.42 10.2701197 10.3533688 7.92252493 # H1
44 15 2 -0.84 10.9236584 11.0003519 8.31533623 # O
45 15 1 0.42 11.0000868 10.8998690 9.30733490 # H2
46 16 1 0.42 6.54504824 -2.95764709 0.291316986 # H1
47 16 2 -0.84 6.47050095 -1.96780896 0.412413001 # O
48 16 1 0.42 5.89008522 -1.72828603 1.19070995 # H2
49 17 1 0.42 -1.03812695 10.8665180 -4.01251316 # H1
50 17 2 -0.84 -2.02469110 11.0003071 -3.91874504 # O
51 17 1 0.42 -2.50316310 10.1420202 -3.73324990 # H2
52 18 1 0.42 3.58739090 5.05453777 2.25735903 # H1
53 18 2 -0.84 3.09220290 4.25306082 1.92206299 # O
54 18 1 0.42 2.12906909 4.45506191 1.74439001 # H2
55 19 1 0.42 3.66145301 2.98911595 10.6766586 # H1
56 19 2 -0.84 3.19157505 3.81046510 11.0000820 # O
57 19 1 0.42 2.87074494 4.38077402 10.2438974 # H2
58 20 1 0.42 2.79649401 5.35444593 -10.9993601 # H1
59 20 2 -0.84 3.02444506 4.38077402 -11.0000715 # O
60 20 1 0.42 2.20706296 3.80467796 -11.0009050 # H2
61 21 1 0.42 -5.72407818 -7.34049606 6.54869604 # H1
62 21 2 -0.84 -6.27234507 -6.50939417 6.45556593 # O
63 21 1 0.42 -5.96506119 -5.94151497 5.69196320 # H2
64 22 1 0.42 10.5134430 1.99786496 -7.70532703 # H1
65 22 2 -0.84 11.0000010 1.12893605 -7.61463404 # O
66 22 1 0.42 10.3929482 0.344585001 -7.74222994 # H2
67 23 1 0.42 -0.121215001 -7.62550020 -0.653672993 # H1
68 23 2 -0.84 0.273745000 -8.54407978 -0.638961971 # O
69 23 1 0.42 1.26286805 -8.52426624 -0.493211001 # H2
70 24 1 0.42 9.03011894 -3.38767910 4.47883606 # H1
71 24 2 -0.84 8.60777569 -2.77598596 3.80991292 # O
72 24 1 0.42 8.78810596 -1.81412804 4.01560688 # H2
73 25 1 0.42 6.56839609 2.33168697 -6.30358887 # H1
74 25 2 -0.84 7.06914520 3.19583392 -6.25358915 # O
75 25 1 0.42 7.02414989 3.70513201 -7.11300182 # H2
76 26 1 0.42 -5.39933395 -1.68651795 -9.43283844 # H1
77 26 2 -0.84 -4.92825890 -2.39344501 -9.96041870 # O
78 26 1 0.42 -5.39991093 -3.27389097 -9.91185570 # H2
79 27 1 0.42 -4.00075006 10.1119976 4.34709692 # H1
80 27 2 -0.84 -3.54530692 11.0003824 4.28925323 # O
81 27 1 0.42 -2.61492705 10.9217672 3.93118596 # H2
82 28 1 0.42 -10.5512428 5.16698122 -1.87507904 # H1
83 28 2 -0.84 -11.0030308 4.27691412 -1.81450403 # O
84 28 1 0.42 -10.7700453 3.79527402 -0.969672024 # H2
85 29 1 0.42 -7.73964691 10.8520136 10.9130974 # H1
86 29 2 -0.84 -6.81558323 10.4798040 11.0000734 # O
87 29 1 0.42 -6.15131283 10.9962273 10.4596529 # H2
88 30 1 0.42 -5.52710009 -10.3975067 -6.68431520 # H1
89 30 2 -0.84 -5.41833591 -11.0039854 -5.89668894 # O
90 30 1 0.42 -4.62779379 -10.7538977 -5.33767223 # H2
91 31 1 0.42 10.0382195 6.98288393 2.83583999 # H1
92 31 2 -0.84 10.4881754 7.87519217 2.87224007 # O
93 31 1 0.42 10.0072222 8.51299477 3.47381401 # H2
94 32 1 0.42 8.72429085 -6.11557722 -7.39320898 # H1
95 32 2 -0.84 8.71348190 -5.36833096 -6.72875023 # O
96 32 1 0.42 9.41040421 -4.67950201 -6.92828703 # H2
97 33 1 0.42 1.84246802 3.81691790 -0.214341000 # H1
98 33 2 -0.84 2.34710193 3.15470004 -0.768247008 # O
99 33 1 0.42 3.00399208 2.63370395 -0.223215997 # H2
100 34 1 0.42 -1.87526202 -8.94024277 -6.53891993 # H1
101 34 2 -0.84 -1.71305203 -9.13021278 -7.50721693 # O
102 34 1 0.42 -2.51752400 -8.93306255 -8.06753445 # H2
103 35 1 0.42 1.41601300 3.18260007E-02 11.0002050 # H1
104 35 2 -0.84 1.03255296 -0.891731024 11.0006113 # O
105 35 1 0.42 3.25980000E-02 -0.882162988 11.0008039 # H2
106 36 1 0.42 -3.65132308 6.65977287 3.70060492 # H1
107 36 2 -0.84 -4.21361589 6.18790913 3.02150893 # O
108 36 1 0.42 -5.19076014 6.29036188 3.20777297 # H2
109 37 1 0.42 4.73412514 10.8632793 4.06168509 # H1
110 37 2 -0.84 5.63734293 10.9959612 4.46984196 # O
111 37 1 0.42 6.36956882 10.9149752 3.79361296 # H2
112 38 1 0.42 -4.13032103 0.689835012 9.44001389 # H1
113 38 2 -0.84 -3.23811197 0.371928990 9.76079369 # O
114 38 1 0.42 -2.70629406 -5.30150011E-02 9.02826881 # H2
115 39 1 0.42 5.57753420 10.4950333 -1.02894104 # H1
116 39 2 -0.84 6.46689177 10.9521542 -1.01983094 # O
117 39 1 0.42 6.85408401 10.9999886 -9.90730003E-02 # H2
118 40 1 0.42 -3.09852505 -6.64028311 10.9995651 # H1
119 40 2 -0.84 -2.11625600 -6.45280886 10.9996243 # O
120 40 1 0.42 -1.92211401 -5.47183514 10.9997520 # H2
121 41 1 0.42 10.9995356 5.62637997 -5.64777184 # H1
122 41 2 -0.84 11.0017986 6.29996109 -4.90866184 # O
123 41 1 0.42 10.0796299 6.61857700 -4.68937206 # H2
124 42 1 0.42 10.4459133 0.657754004 -4.71570008E-02 # H1
125 42 2 -0.84 11.0007877 1.42629600 -0.365680009 # O
126 42 1 0.42 10.4480591 2.12372303 -0.821846008 # H2
127 43 1 0.42 9.89719200 -0.190213993 -11.0001049 # H1
128 43 2 -0.84 10.8581657 -0.396234989 -10.8154840 # O
129 43 1 0.42 11.0002117 -0.710947990 -9.87698555 # H2
130 44 1 0.42 1.40020704 4.78765821 8.56212139 # H1
131 44 2 -0.84 0.633036971 4.50031614 9.13560581 # O
132 44 1 0.42 0.864989996 3.71047211 9.70335960 # H2
133 45 1 0.42 -10.9739494 4.70488691 -6.39944792 # H1
134 45 2 -0.84 -10.4954729 3.89429688 -6.06180286 # O
135 45 1 0.42 -9.50336361 4.01960421 -6.05742598 # H2
136 46 1 0.42 4.59410715 -1.35782301 -1.12186599 # H1
137 46 2 -0.84 4.86209011 -0.623709023 -1.74577403 # O
138 46 1 0.42 4.28351212 -0.594973028 -2.56089497 # H2
139 47 1 0.42 -6.16930819 8.88831043 -10.1937323 # H1
140 47 2 -0.84 -5.86259890 8.38552284 -11.0018997 # O
141 47 1 0.42 -5.09584808 7.77745008 -10.7961330 # H2
142 48 1 0.42 -4.19139481 -0.474411994 -5.55146217 # H1
143 48 2 -0.84 -4.82629681 -0.412467003 -4.78135681 # O
144 48 1 0.42 -4.93518496 0.528335989 -4.46036911 # H2
145 49 1 0.42 -10.7915440 -5.98899794 -4.30936193 # H1
146 49 2 -0.84 -11.0024261 -5.30719423 -3.60888195 # O
147 49 1 0.42 -10.2013130 -4.76068687 -3.36485505 # H2
148 50 1 0.42 8.78320694 7.51665497 -2.86694098 # H1
149 50 2 -0.84 8.81619835 6.57462788 -2.53303003 # O
150 50 1 0.42 8.04285622 6.36153316 -1.93592799 # H2
151 51 1 0.42 8.47322464 -6.83944416 -1.47360301 # H1
152 51 2 -0.84 8.30308437 -6.05925989 -0.871634007 # O
153 51 1 0.42 8.79697227 -6.13944578 -5.81400003E-03 # H2
154 52 1 0.42 -10.6875057 5.78871822 -3.78032088 # H1
155 52 2 -0.84 -11.0004139 6.40634012 -4.50186777 # O
156 52 1 0.42 -10.2760296 6.61064911 -5.16029501 # H2
157 53 1 0.42 -9.39452934 -8.56453419 -2.78652000 # H1
158 53 2 -0.84 -9.32195282 -7.81952620 -3.44961596 # O
159 53 1 0.42 -9.20144176 -6.93222380 -3.00445104 # H2
160 54 1 0.42 0.411727995 7.65847778 10.8210821 # H1
161 54 2 -0.84 0.942093015 6.82981491 11.0000544 # O
162 54 1 0.42 1.66067696 6.69050980 10.3187094 # H2
163 55 1 0.42 4.11348581 4.98530006 -4.84721708 # H1
164 55 2 -0.84 3.59043503 5.56994009 -5.46738911 # O
165 55 1 0.42 2.61363101 5.56384277 -5.25333977 # H2
166 56 1 0.42 6.16770792 7.10615921 -4.58943892 # H1
167 56 2 -0.84 6.46097517 6.18681192 -4.85172987 # O
168 56 1 0.42 5.98215914 5.47858810 -4.33293009 # H2
169 57 1 0.42 3.60839796 0.713172972 -8.30377769 # H1
170 57 2 -0.84 3.18147206 -0.170192003 -8.11038780 # O
171 57 1 0.42 3.60615897 -0.912860990 -8.62815475 # H2
172 58 1 0.42 9.16783714 6.19439220 10.9998798 # H1
173 58 2 -0.84 9.43720722 6.09844589 10.0416336 # O
174 58 1 0.42 9.10343933 5.24451494 9.64238167 # H2
175 59 1 0.42 3.87797403 -5.35756683 -10.5008373 # H1
176 59 2 -0.84 4.67585802 -5.87954187 -10.8023720 # O
177 59 1 0.42 5.04707909 -6.45207119 -10.0713425 # H2
178 60 1 0.42 -3.14629602 3.20690799 -5.91698885 # H1
179 60 2 -0.84 -3.36758995 2.40160990 -5.36696720 # O
180 60 1 0.42 -4.24855089 2.00365996 -5.62298107 # H2
181 61 1 0.42 0.699160993 3.09512901 3.03535700 # H1
182 61 2 -0.84 0.231110007 2.88634300 2.17667389 # O
183 61 1 0.42 0.871116996 2.79514289 1.41373599 # H2
184 62 1 0.42 -0.810160995 10.6154623 8.30013943 # H1
185 62 2 -0.84 -0.374790996 11.0000696 7.48617983 # O
186 62 1 0.42 9.79799964E-03 10.2901278 6.89620209 # H2
187 63 1 0.42 -10.7739964 8.16425037 9.71623898 # H1
188 63 2 -0.84 -11.0003834 7.23335600 9.42955875 # O
189 63 1 0.42 -10.1820793 6.68348789 9.26215839 # H2
190 64 1 0.42 10.8294897 -3.81186295 -0.492215008 # H1
191 64 2 -0.84 11.0012732 -4.74254417 -0.815208018 # O
192 64 1 0.42 10.4334993 -4.97588110 -1.60462999 # H2
193 65 1 0.42 7.59014606 10.0711927 2.12618589 # H1
194 65 2 -0.84 8.02408409 9.44918346 1.47441900 # O
195 65 1 0.42 7.43370390 9.25628853 0.690683007 # H2
196 66 1 0.42 -1.54736400 -8.04985714 5.62967014 # H1
197 66 2 -0.84 -1.89570403 -8.58626938 4.86095619 # O
198 66 1 0.42 -2.42124796 -8.02592945 4.22078085 # H2
199 67 1 0.42 -8.99049664 10.6593256 1.69298303 # H1
200 67 2 -0.84 -9.66352081 11.0013876 2.34875107 # O
201 67 1 0.42 -10.4967127 10.4484243 2.35332108 # H2
202 68 1 0.42 -5.13618517 7.81477213 5.78478384 # H1
203 68 2 -0.84 -5.61865091 8.36125374 5.10025215 # O
204 68 1 0.42 -5.46503210 8.02052879 4.17272377 # H2
205 69 1 0.42 -5.58780909 11.0008049 -8.06238174 # H1
206 69 2 -0.84 -6.54918480 11.0007877 -8.33762169 # O
207 69 1 0.42 -6.81389284 10.1408405 -8.77399540 # H2
208 70 1 0.42 1.04823506 2.38933706 -8.73115635 # H1
209 70 2 -0.84 1.97882497 2.73777294 -8.61893082 # O
210 70 1 0.42 1.98976195 3.65663195 -8.22449875 # H2
211 71 1 0.42 -6.13744688 -0.280589998 -8.21469116 # H1
212 71 2 -0.84 -5.39601183 0.121960998 -7.67782402 # O
213 71 1 0.42 -5.73993015 0.714545012 -6.94942522 # H2
214 72 1 0.42 -6.29036522 -3.18418503 -6.02036095 # H1
215 72 2 -0.84 -6.94499111 -2.66823602 -6.57286596 # O
216 72 1 0.42 -6.73091221 -1.69161797 -6.59252691 # H2
217 73 1 0.42 0.848125994 1.51746094 4.25620079 # H1
218 73 2 -0.84 0.830877006 1.83318901 5.20489407 # O
219 73 1 0.42 1.74079394 1.82337499 5.61956978 # H2
220 74 1 0.42 10.9072094 8.28057671 -7.06182718 # H1
221 74 2 -0.84 11.0000277 8.15835285 -8.04997921 # O
222 74 1 0.42 10.1979465 7.71446419 -8.44951439 # H2
223 75 1 0.42 6.06865311 -9.53920078 -8.26575470 # H1
224 75 2 -0.84 5.95234394 -8.55846119 -8.10884094 # O
225 75 1 0.42 6.80678320 -8.11968040 -7.83062410 # H2
226 76 1 0.42 3.46005201 -2.69344211 -6.41090488 # H1
227 76 2 -0.84 3.34346604 -3.39086103 -5.70378780 # O
228 76 1 0.42 2.47903204 -3.88377905 -5.80270290 # H2
229 77 1 0.42 2.73490906 4.53832483 6.22387314 # H1
230 77 2 -0.84 3.60389090 4.04348516 6.22578001 # O
231 77 1 0.42 3.47065210 3.05254698 6.24281693 # H2
232 78 1 0.42 -7.43410301 -1.97543705 3.56662011 # H1
233 78 2 -0.84 -8.38964367 -2.26954103 3.54554892 # O
234 78 1 0.42 -8.56887722 -2.90726399 2.79642606 # H2
235 79 1 0.42 8.22467232 -10.2576952 -0.814117014 # H1
236 79 2 -0.84 7.68523598 -11.0020084 -0.420408994 # O
237 79 1 0.42 6.70267105 -10.8284311 -0.487029999 # H2
238 80 1 0.42 -1.18395901 -2.07527900 9.56094837 # H1
239 80 2 -0.84 -0.740054011 -1.73474896 8.73209953 # O
240 80 1 0.42 -0.787678003 -0.738204002 8.66406059 # H2
241 81 1 0.42 -3.09990406 -8.68122292 -10.9997721 # H1
242 81 2 -0.84 -4.09935904 -8.64822102 -11.0000257 # O
243 81 1 0.42 -4.44316196 -7.70917892 -11.0002651 # H2
244 82 1 0.42 -5.66463518 -3.00928092 3.48478508 # H1
245 82 2 -0.84 -5.91232300 -3.95460510 3.69694710 # O
246 82 1 0.42 -6.79581499 -4.20783997 3.30284691 # H2
247 83 1 0.42 -5.70367479 -11.0018311 8.78182411 # H1
248 83 2 -0.84 -4.71078777 -10.9998808 8.90087223 # O
249 83 1 0.42 -4.32895994 -10.0771666 8.84791183 # H2
250 84 1 0.42 -2.98661995 9.44520092 6.23863506 # H1
251 84 2 -0.84 -2.10251904 9.02763271 6.02886820 # O
252 84 1 0.42 -2.20237994 8.18453312 5.50046301 # H2
253 85 1 0.42 1.97895706 -6.26921320 10.2711191 # H1
254 85 2 -0.84 2.55310297 -6.64096022 11.0006123 # O
255 85 1 0.42 3.28432894 -7.22165489 10.6426992 # H2
256 86 1 0.42 8.67673588 4.33545780 -9.29767799 # H1
257 86 2 -0.84 8.43756008 3.37598801 -9.14863491 # O
258 86 1 0.42 8.68868160 3.06536698 -8.23187256 # H2
259 87 1 0.42 7.00207376 8.13539410 -7.53437281 # H1
260 87 2 -0.84 7.54354715 8.48747826 -8.29781532 # O
261 87 1 0.42 8.46996784 8.73734665 -8.01619530 # H2
262 88 1 0.42 -8.93906307 5.23906088 8.34126568 # H1
263 88 2 -0.84 -8.42244434 4.82519388 9.09081173 # O
264 88 1 0.42 -8.32989120 3.83562708 8.98040199 # H2
265 89 1 0.42 -2.89690089 -10.2293081 -4.48403406 # H1
266 89 2 -0.84 -2.29716897 -10.9380140 -4.11247492 # O
267 89 1 0.42 -1.43465304 -11.0000029 -4.61469316 # H2
268 90 1 0.42 -8.09602165 -8.38799095 -10.9271641 # H1
269 90 2 -0.84 -7.11144686 -8.22963238 -11.0015564 # O
270 90 1 0.42 -6.67008495 -8.18712521 -10.1052341 # H2
271 91 1 0.42 5.44559717 -6.53425312 -6.73233414 # H1
272 91 2 -0.84 5.76021194 -5.70677280 -7.19740915 # O
273 91 1 0.42 5.51211500 -5.70419979 -8.16614056 # H2
274 92 1 0.42 7.05812693 0.762778997 -1.03450596 # H1
275 92 2 -0.84 7.62754917 0.728406012 -0.213179007 # O
276 92 1 0.42 8.51407242 1.16937900 -0.353246987 # H2
277 93 1 0.42 2.02893591 8.52144909 6.34911680 # H1
278 93 2 -0.84 1.23560297 8.43967533 5.74584723 # O
279 93 1 0.42 0.966291010 7.48650312 5.60825109 # H2
280 94 1 0.42 -11.0000000 0.995876014 2.90408993 # H1
281 94 2 -0.84 -10.5097046 0.136474997 2.75903797 # O
282 94 1 0.42 -9.51984406 0.272312999 2.71752501 # H2
283 95 1 0.42 4.32650423 -7.01302004 2.96204805 # H1
284 95 2 -0.84 3.34934711 -6.89978218 2.78220797 # O
285 95 1 0.42 2.80609488 -6.94835997 3.62037110 # H2
286 96 1 0.42 -2.52113199 -9.07437706 10.9433689 # H1
287 96 2 -0.84 -3.51889706 -9.10467052 11.0029364 # O
288 96 1 0.42 -3.95444989 -8.63533401 10.2348108 # H2
289 97 1 0.42 10.1443939 -3.64590907 -3.53135395 # H1
290 97 2 -0.84 10.7813663 -4.23377895 -4.03002882 # O
291 97 1 0.42 11.0004826 -5.06584120 -3.52045989 # H2
292 98 1 0.42 8.36555099 -5.84691000 10.1581259 # H1
293 98 2 -0.84 8.46387100 -6.37698793 11.0003557 # O
294 98 1 0.42 8.12244511 -7.31119919 10.8970242 # H2
295 99 1 0.42 -3.88392997 1.73910296 -3.00043201 # H1
296 99 2 -0.84 -3.33208299 1.00687599 -2.60129809 # O
297 99 1 0.42 -2.89731312 1.28909695 -1.74612105 # H2
298 100 1 0.42 -0.961179972 0.853433013 6.65285683 # H1
299 100 2 -0.84 -1.23552501 -4.30079997E-02 6.30482101 # O
300 100 1 0.42 -0.453209013 -0.654721022 6.18739986 # H2
301 101 1 0.42 5.93423605 -7.84212112 8.66578484 # H1
302 101 2 -0.84 6.03572893 -7.33289909 9.52041435 # O
303 101 1 0.42 5.19428015 -7.33637190 10.0607376 # H2
304 102 1 0.42 2.92211390 -2.77435803 -11.0001078 # H1
305 102 2 -0.84 3.34771800 -1.86944902 -11.0001268 # O
306 102 1 0.42 4.34616995 -1.92507803 -11.0001650 # H2
307 103 1 0.42 8.32736111 7.97510719 8.75818729 # H1
308 103 2 -0.84 8.29841042 8.86407471 8.30113411 # O
309 103 1 0.42 7.71240997 8.84983826 7.49094915 # H2
310 104 1 0.42 7.46556807 -11.0001888 3.80655003 # H1
311 104 2 -0.84 8.33956718 -11.0000811 3.32062197 # O
312 104 1 0.42 8.82821083 -10.1343288 3.42879009 # H2
313 105 1 0.42 8.35539246 1.89798200 1.94769895 # H1
314 105 2 -0.84 9.32562828 1.71494997 2.10625911 # O
315 105 1 0.42 9.50858307 0.738712013 2.22239494 # H2
316 106 1 0.42 -5.16582823 3.97698092 10.4286718 # H1
317 106 2 -0.84 -5.82239485 4.46941805 11.0000086 # O
318 106 1 0.42 -6.36022520 5.12623978 10.4714966 # H2
319 107 1 0.42 4.55505705 -10.9237499 1.85852802 # H1
320 107 2 -0.84 5.54049683 -11.0000000 2.01049209 # O
321 107 1 0.42 6.01381016 -10.1357727 1.83994496 # H2
322 108 1 0.42 3.31513691 -0.556003988 3.22604990 # H1
323 108 2 -0.84 4.26207685 -0.792376995 3.44384003 # O
324 108 1 0.42 4.41710997 -1.77994704 3.41796398 # H2
325 109 1 0.42 4.73252821 -2.03391790 -3.87525892 # H1
326 109 2 -0.84 5.54358482 -1.80976295 -4.41557598 # O
327 109 1 0.42 6.08812284 -1.08623505 -3.99132895 # H2
328 110 1 0.42 1.62789905 -4.75364685 7.40265608 # H1
329 110 2 -0.84 1.84696996 -3.96674299 7.97953510 # O
330 110 1 0.42 2.05399990 -4.23752594 8.91965008 # H2
331 111 1 0.42 9.87020206 -11.0001221 -3.41135001 # H1
332 111 2 -0.84 10.2814693 -11.0000257 -4.32286501 # O
333 111 1 0.42 9.60595036 -10.8228521 -5.03860521 # H2
334 112 1 0.42 -3.66408896 2.84380000E-02 -0.324896008 # H1
335 112 2 -0.84 -3.18976498 -0.732114971 0.118473001 # O
336 112 1 0.42 -3.75445890 -1.55669200 0.153027996 # H2
337 113 1 0.42 -6.45375395 -7.70355797 3.99055099 # H1
338 113 2 -0.84 -5.69723988 -8.33826160 4.14814997 # O
339 113 1 0.42 -5.98366499 -9.29215145 4.05838919 # H2
340 114 1 0.42 -10.9995661 -7.54726601 5.10824680 # H1
341 114 2 -0.84 -10.7392454 -6.59083891 4.97603321 # O
342 114 1 0.42 -11.0027657 -6.25231123 4.07273006 # H2
343 115 1 0.42 4.28975916 1.65424204 -6.31460714 # H1
344 115 2 -0.84 3.83208704 2.54213190 -6.26783323 # O
345 115 1 0.42 4.34695101 3.20050693 -5.71878195 # H2
346 116 1 0.42 6.69328594 5.18020582 10.2484188 # H1
347 116 2 -0.84 6.94435406 4.56451321 10.9953384 # O
348 116 1 0.42 7.92173719 4.35304117 10.9940205 # H2
349 117 1 0.42 -10.9336329 8.86323547 -7.69276190 # H1
350 117 2 -0.84 -11.0000620 8.16890907 -6.97617292 # O
351 117 1 0.42 -10.1518555 7.64817286 -6.87933683 # H2
352 118 1 0.42 1.25632000 10.2164106 -6.18637896 # H1
353 118 2 -0.84 1.46034300 9.23750877 -6.19757605 # O
354 118 1 0.42 1.45791602 8.86493778 -7.12557602 # H2
355 119 1 0.42 -5.58248377 8.79143047 2.11630702 # H1
356 119 2 -0.84 -5.93798399 8.27667809 1.33614695 # O
357 119 1 0.42 -5.48988008 7.38809204 1.23808205 # H2
358 120 1 0.42 -5.96404791 -1.59277201 9.21776009 # H1
359 120 2 -0.84 -6.18795204 -0.914896011 8.51750946 # O
360 120 1 0.42 -6.28216505 -1.32874095 7.61205006 # H2
361 121 1 0.42 0.821736991 4.76393080 -9.51619339 # H1
362 121 2 -0.84 0.518700004 5.62710524 -9.92004871 # O
363 121 1 0.42 -0.323583990 5.96273613 -9.49825478 # H2
364 122 1 0.42 0.807767987 4.01821280 6.58333111 # H1
365 122 2 -0.84 0.243088007 4.73266077 6.17017078 # O
366 122 1 0.42 0.796765983 5.45226479 5.75111294 # H2
367 123 1 0.42 -8.61902618 -10.9904366 -8.49393177 # H1
368 123 2 -0.84 -7.62573814 -10.8752813 -8.48306847 # O
369 123 1 0.42 -7.31966114 -10.3363829 -7.69827080 # H2
370 124 1 0.42 -5.72034216 2.89603591 5.59590101 # H1
371 124 2 -0.84 -5.65923691 3.84674096 5.89991808 # O
372 124 1 0.42 -5.14898396 3.93438911 6.75546408 # H2
373 125 1 0.42 8.52873707 -2.48918796 10.1682167 # H1
374 125 2 -0.84 7.97418308 -2.49942994 11.0003023 # O
375 125 1 0.42 6.99562216 -2.45654011 10.7988567 # H2
376 126 1 0.42 10.5953283 -7.20032406 -0.605552018 # H1
377 126 2 -0.84 11.0000229 -7.73964119 0.132933006 # O
378 126 1 0.42 10.8676777 -7.31025410 1.02630401 # H2
379 127 1 0.42 0.333083987 -7.82150602 6.27125597 # H1
380 127 2 -0.84 0.943516016 -8.35920334 6.85285187 # O
381 127 1 0.42 1.42142105 -9.07063770 6.33761692 # H2
382 128 1 0.42 -6.78010082 -5.89850616 2.10853291 # H1
383 128 2 -0.84 -6.55063295 -5.68466711 1.15899706 # O
384 128 1 0.42 -6.99825382 -4.84743881 0.844855011 # H2
385 129 1 0.42 -2.37411904 -8.91127110 2.13399911 # H1
386 129 2 -0.84 -1.95271599 -8.42566872 1.36809504 # O
387 129 1 0.42 -2.42293501 -7.56685686 1.16478300 # H2
388 130 1 0.42 2.87528300 6.90967417 8.66830254 # H1
389 130 2 -0.84 2.96497893 6.55455112 7.73779583 # O
390 130 1 0.42 2.07695889 6.44637394 7.29089689 # H2
391 131 1 0.42 8.17640495 -6.16990423 2.17487192 # H1
392 131 2 -0.84 7.80175495 -6.26230717 3.09742188 # O
393 131 1 0.42 7.24168491 -5.47488880 3.35489988 # H2
394 132 1 0.42 4.90290117 -10.6222610 -1.33963299 # H1
395 132 2 -0.84 4.16344404 -10.9994764 -1.89722800 # O
396 132 1 0.42 4.39125776 -10.9998293 -2.87093210 # H2
397 133 1 0.42 -0.331193000 -1.78261304 1.79937601 # H1
398 133 2 -0.84 4.21399996E-03 -1.71213698 0.859942973 # O
399 133 1 0.42 -0.131431997 -0.796527982 0.481444001 # H2
400 134 1 0.42 1.98500299 6.37019491 1.18647599 # H1
401 134 2 -0.84 2.35085106 6.66865492 0.304955989 # O
402 134 1 0.42 1.98633099 6.12906885 -0.453972012 # H2
403 135 1 0.42 -7.03973198 6.30005598 -6.21304178 # H1
404 135 2 -0.84 -7.67345810 5.64556313 -6.62539101 # O
405 135 1 0.42 -8.56024837 6.06032181 -6.82930088 # H2
406 136 1 0.42 2.13959098 -1.51408994 6.00343084 # H1
407 136 2 -0.84 2.90794110 -2.11132503 5.77332306 # O
408 136 1 0.42 3.35464191 -2.47826004 6.58929920 # H2
409 137 1 0.42 1.80024695 2.07318211 9.02962399 # H1
410 137 2 -0.84 2.58638406 2.32444000 8.46494770 # O
411 137 1 0.42 2.74610400 3.31159997 8.46315384 # H2
412 138 1 0.42 7.86070108 3.28306389 0.381720006 # H1
413 138 2 -0.84 8.54967499 3.66621089 -0.233513996 # O
414 138 1 0.42 8.70570946 3.08311701 -1.03079402 # H2
415 139 1 0.42 5.26693487 -2.00531793 -8.40964794 # H1
416 139 2 -0.84 5.71231604 -2.85379410 -8.12377357 # O
417 139 1 0.42 5.29806900 -3.65698695 -8.55188465 # H2
418 140 1 0.42 -1.85070097 3.42479396 7.83358812 # H1
419 140 2 -0.84 -1.60407400 2.64060712 8.40299606 # O
420 140 1 0.42 -2.02009392 1.79296601 8.07370567 # H2
421 141 1 0.42 4.59604692 -8.77262020 0.984622002 # H1
422 141 2 -0.84 4.02169895 -8.79276466 0.166259006 # O
423 141 1 0.42 3.05962801 -8.62265491 0.379525989 # H2
424 142 1 0.42 6.53649616 10.4689894 7.54623890 # H1
425 142 2 -0.84 5.69149685 11.0003576 7.48604012 # O
426 142 1 0.42 4.88836622 10.4153738 7.37301493 # H2
427 143 1 0.42 9.99111366 -7.18631601 8.99266815 # H1
428 143 2 -0.84 10.4878273 -6.34324121 8.78650761 # O
429 143 1 0.42 9.87772083 -5.55280590 8.73189735 # H2
430 144 1 0.42 6.34409094 0.559392989 10.8263712 # H1
431 144 2 -0.84 6.45488024 1.53692198 11.0057116 # O
432 144 1 0.42 6.55123520 2.06411195 10.1614447 # H2
433 145 1 0.42 4.56095505 10.3875790 -10.3807850 # H1
434 145 2 -0.84 4.06285477 11.0002193 -10.9944372 # O
435 145 1 0.42 3.07244110 10.9164648 -10.8845901 # H2
436 146 1 0.42 9.92325687 -0.846457005 10.6562080 # H1
437 146 2 -0.84 10.0747280 8.01590011E-02 11.0003567 # O
438 146 1 0.42 11.0001631 0.405371010 10.8059139 # H2
439 147 1 0.42 -10.3207827 8.51551437 -0.277790010 # H1
440 147 2 -0.84 -11.0000315 7.80497122 -0.461501986 # O
441 147 1 0.42 -10.5863276 6.89614010 -0.515118003 # H2
442 148 1 0.42 10.9897814 -6.41889095 -10.5333672 # H1
443 148 2 -0.84 10.1225748 -6.59149408 -11.0004454 # O
444 148 1 0.42 9.55994511 -7.25812101 -10.5115099 # H2
445 149 1 0.42 2.11013508 -10.6356039 10.2946739 # H1
446 149 2 -0.84 2.72359896 -10.2805023 11.0000553 # O
447 149 1 0.42 2.79741406 -9.28384018 10.9651899 # H2
448 150 1 0.42 11.0009823 -10.7854967 -1.77583599 # H1
449 150 2 -0.84 10.9224310 -11.0004120 -0.802367985 # O
450 150 1 0.42 10.3929787 -10.3109608 -0.308061987 # H2
451 151 1 0.42 -7.24735117 8.05832195 -7.56513309 # H1
452 151 2 -0.84 -7.65252590 8.63652611 -6.85695791 # O
453 151 1 0.42 -8.14438534 9.41567516 -7.24554777 # H2
454 152 1 0.42 2.64897299 -1.64596796 8.44911003 # H1
455 152 2 -0.84 2.44603896 -0.670503020 8.36375046 # O
456 152 1 0.42 3.24523091 -0.102903999 8.56154442 # H2
457 153 1 0.42 -0.855481029 -6.20647478 1.02150404 # H1
458 153 2 -0.84 -0.679471016 -5.76215410 1.89991200 # O
459 153 1 0.42 -1.26823497 -6.11933613 2.62501693 # H2
460 154 1 0.42 10.2805614 5.43582392 -8.75715828 # H1
461 154 2 -0.84 11.0008087 4.79239511 -8.49784660 # O
462 154 1 0.42 10.6299362 3.96505094 -8.07599926 # H2
463 155 1 0.42 -0.447629005 6.13176203 0.223220006 # H1
464 155 2 -0.84 -0.235900000 5.15705204 0.151731998 # O
465 155 1 0.42 -1.05250502 4.58817816 0.249399006 # H2
466 156 1 0.42 -8.27660465 -0.407303989 -10.5450659 # H1
467 156 2 -0.84 -9.16661263 -0.368928999 -10.9993916 # O
468 156 1 0.42 -9.92263222 -0.401207000 -10.3456392 # H2
469 157 1 0.42 -10.7874012 5.73847103 7.23021221 # H1
470 157 2 -0.84 -10.4201527 6.30309010 6.49106789 # O
471 157 1 0.42 -10.9859648 6.25687885 5.66782999 # H2
472 158 1 0.42 -8.98383141 8.57595444 5.74794292 # H1
473 158 2 -0.84 -8.42185593 9.39465618 5.86588478 # O
474 158 1 0.42 -8.92381477 10.2293892 5.63948011 # H2
475 159 1 0.42 7.09154081 5.27448988 5.10606480 # H1
476 159 2 -0.84 6.11548090 5.37288523 4.91209078 # O
477 159 1 0.42 5.65220213 4.48802185 4.86319590 # H2
478 160 1 0.42 -9.97854614 11.0002890 -0.730360985 # H1
479 160 2 -0.84 -10.9135914 10.9501781 -0.379393011 # O
480 160 1 0.42 -11.0003729 10.2844048 0.361696988 # H2
481 161 1 0.42 4.18271399 10.6393671 0.767732024 # H1
482 161 2 -0.84 4.81499195 10.9338093 1.48434198 # O
483 161 1 0.42 5.17020893 10.1615057 2.01099992 # H2
484 162 1 0.42 0.163496003 -2.58456397 -1.91363299 # H1
485 162 2 -0.84 -0.674214005 -2.05382109 -2.04229498 # O
486 162 1 0.42 -1.10274696 -2.23878407 -2.92668605 # H2
487 163 1 0.42 -2.52213907 -6.30940104 5.76991606 # H1
488 163 2 -0.84 -3.46018600 -6.10415220 5.49073792 # O
489 163 1 0.42 -3.86038709 -6.84387398 4.94976616 # H2
490 164 1 0.42 2.62555194 -2.74772596 10.4835234 # H1
491 164 2 -0.84 3.28833508 -3.36317301 10.9100723 # O
492 164 1 0.42 3.24380398 -4.28562307 10.5265331 # H2
493 165 1 0.42 -3.14883709 -10.6822624 -1.61901200 # H1
494 165 2 -0.84 -2.56044006 -11.0000000 -0.875487030 # O
495 165 1 0.42 -2.16999602 -10.2400265 -0.355877012 # H2
496 166 1 0.42 10.9277563 -2.86540604 10.6099195 # H1
497 166 2 -0.84 10.6980324 -3.75659204 11.0010900 # O
498 166 1 0.42 9.84251976 -4.11881208 10.6310949 # H2
499 167 1 0.42 6.60615301 7.67251682 -1.47025704 # H1
500 167 2 -0.84 6.06000900 8.16757393 -2.14601207 # O
501 167 1 0.42 6.60381317 8.44131947 -2.93932199 # H2
502 168 1 0.42 6.09120321 3.94280505 1.98928702 # H1
503 168 2 -0.84 6.00104904 4.69578314 1.33744597 # O
504 168 1 0.42 6.23447800 5.57702684 1.74844599 # H2
505 169 1 0.42 10.1456041 -4.74496412 -8.78702927 # H1
506 169 2 -0.84 11.0048971 -4.23368311 -8.80145645 # O
507 169 1 0.42 10.8548708 -3.25222397 -8.92074871 # H2
508 170 1 0.42 -6.32024717 -0.558201015 -10.9320612 # H1
509 170 2 -0.84 -5.78552198 0.283356011 -11.0085526 # O
510 170 1 0.42 -5.55675983 0.664552987 -10.1128092 # H2
511 171 1 0.42 -4.87612391 -1.19724798 3.79256010 # H1
512 171 2 -0.84 -5.21159601 -0.340016991 4.18321896 # O
513 171 1 0.42 -5.09294415 0.429423988 3.55561900 # H2
514 172 1 0.42 0.732695997 -6.00100183 -7.06597519 # H1
515 172 2 -0.84 0.162527993 -6.82047701 -7.12402821 # O
516 172 1 0.42 0.710644007 -7.65461683 -7.18550205 # H2
517 173 1 0.42 -5.90957785 -7.51101208 -1.10959196 # H1
518 173 2 -0.84 -5.74020386 -8.35037518 -1.62609994 # O
519 173 1 0.42 -6.52694988 -8.61114311 -2.18559098 # H2
520 174 1 0.42 -8.59915543 3.86434388 -2.36306691 # H1
521 174 2 -0.84 -8.45285892 2.90234494 -2.59362102 # O
522 174 1 0.42 -7.63094997 2.77075505 -3.14783311 # H2
523 175 1 0.42 10.8848543 -6.35890722 -5.73377800 # H1
524 175 2 -0.84 11.0003214 -7.16537619 -5.15388489 # O
525 175 1 0.42 10.8866110 -6.94892979 -4.18423510 # H2
526 176 1 0.42 5.36156607 1.00424397 -4.41609097 # H1
527 176 2 -0.84 6.18064404 1.41123998 -4.01178122 # O
528 176 1 0.42 6.91412497 0.741322994 -3.89681506 # H2
529 177 1 0.42 1.29708195 6.86703300 -6.97465181 # H1
530 177 2 -0.84 0.502044976 6.26098585 -6.94969320 # O
531 177 1 0.42 -0.355316013 6.77057600 -6.87724018 # H2
532 178 1 0.42 -3.62304091 -10.2538662 6.01498890 # H1
533 178 2 -0.84 -4.37518120 -10.9062185 5.92160702 # O
534 178 1 0.42 -5.06335306 -10.5933142 5.26700020 # H2
535 179 1 0.42 7.19683790 0.831514001 8.72509670 # H1
536 179 2 -0.84 7.75632477 4.45199991E-03 8.77934170 # O
537 179 1 0.42 8.72635937 0.215604007 8.89954853 # H2
538 180 1 0.42 -0.671172976 10.5445375 -1.41748798 # H1
539 180 2 -0.84 0.129562005 11.0004396 -1.80604696 # O
540 180 1 0.42 0.982927978 10.6591454 -1.41198504 # H2
541 181 1 0.42 -10.5169725 -7.53100681 -10.9797792 # H1
542 181 2 -0.84 -11.0005293 -8.40607643 -11.0004559 # O
543 181 1 0.42 -10.7626648 -8.98405075 -10.2198372 # H2
544 182 1 0.42 -10.5294371 -10.9248753 7.16999988E-04 # H1
545 182 2 -0.84 -10.8134375 -11.0005274 0.956552029 # O
546 182 1 0.42 -10.0517921 -10.8495693 1.58671796 # H2